ITEM: TIMESTEP
0
ITEM: NUMBER OF ATOMS
64
ITEM: BOX BOUNDS xy xz yz pp pp pp
-6.6279810902969043e+00 9.9419716354453556e+00 -3.3139905451484521e+00
-4.6866903745251483e+00 9.3733807490502947e+00 -3.3139905451484521e+00
0.0000000000000000e+00 8.1175858480215659e+00 -4.6866903745251483e+00
ITEM: ATOMS id type xsu ysu zsu fx fy fz vx vy vz c_eng
1 1   0.0133124800590849   0.0299059936701269  0.00936715640693819    0.444471127481113    0.817605585550185   -0.181495523298625                    0                    0                    0     -6.4129913113384
2 2  -0.0122375522213929   0.0336818701948687    0.283681441159047     6.98959660734269   -0.648555835368158    0.720305920236874                    0                    0                    0    -6.93338732510074
3 1  0.00778642011891861   0.0290001331769645    0.561323542107857   -0.460209494173551   -0.510626373045774    0.766143031519788                    0                    0                    0    -6.37174353126725
4 2  -0.0242808566127906  0.00200776019210025    0.752068179898288      1.4579255497872    -1.92830849112347    -1.12134491826012                    0                    0                    0    -7.71501428949858
5 2  -0.0950748626438553    0.211246805898554  -0.0436755567881164     1.63670547643333    -1.22291481859528     2.46820665233314                    0                    0                    0    -7.34845471369458
6 2  -0.0182556738956237    0.243518113328037    0.208838362815982     2.08998714054462   -0.148356921110479   -0.328790978032992                    0                    0                    0    -7.69523222130004
7 2  0.00139403486718948    0.264572073869317    0.439364256702333   -0.336412857996632     -5.0226319120328     1.49192502265554                    0                    0                    0    -6.85551511434778
8 2  -0.0354674211200177    0.206867827002611     0.74586459679972     3.82205148773151     1.69035299335837   -0.237866175336978                    0                    0                    0    -7.37619196942691
9 2  -0.0271795554280061    0.455695741238287  -0.0113273554394482    0.905939114166074     4.09936100316451     7.97909296209793                    0                    0                    0    -6.80191340988745
10 2  -0.0233187919785109     0.50219523349881    0.244121759453719     2.62637303208231    0.889733727550845    0.797019303319672                    0                    0                    0    -7.84472772882351
11 2    0.048051767241418    0.483923244678522     0.53268044178435    -6.68623375656589     1.91735632103963    0.734106394508814                    0                    0                    0    -6.42270611610743
12 2  -0.0104085036028323    0.440455890794624    0.743854546597959     2.73659631250662     4.60001951836987     0.19914122714853                    0                    0                    0    -7.36250236036794
13 2   -0.085919586396642    0.720749413225803  -0.0457527838556189     1.96918264964216     1.28208935170457     6.90438433608081                    0                    0                    0    -5.07460428711901
14 2   0.0237761723305994     0.75962272257118    0.274442364526067    -1.15148814455403    0.438158499839299   -0.566476949510039                    0                    0                    0    -7.62827760696413
15 2  -0.0465058977166564    0.708340498098664    0.489109268868219     1.44495166921003     2.47514314075677    -2.33050580974068                    0                    0                    0      -7.456309195945
16 2   0.0155875467402211    0.758813885483164    0.719151141654493    -1.51252756743378   -0.455706112116529     3.55789784553011                    0                    0                    0    -7.34489392619473
17 2    0.212396615349235   0.0174486653039594  -0.0370929059005221     1.30854093161688    -7.80443074189799    0.189905621090126                    0                    0                    0    -7.16889625843784
18 2    0.248294972696954  0.00592144621316493    0.222247274894016    -2.08308204202374   -0.926055017061639    0.252054320087979                    0                    0                    0    -7.53186869877846
19 2    0.252405816965847  0.00501172471967948    0.551279084711155    0.566999120816394     2.03643223677657    -5.09762624927702                    0                    0                    0    -7.16576906450566
20 2    0.284150049438836   0.0174128767753245    0.750576247096319    -1.29544279140305    -3.49202391677721     1.85696696032668                    0                    0                    0    -7.22750397245088
21 2    0.216237091881453    0.208566832442898    -0.01737369027461    -2.55640561497527     5.11246264606102   -0.435230350418725                    0                    0                    0    -6.41894289391473
22 2    0.306675065791751    0.254182057608659    0.239973498213772    -1.94345680287541    -0.23664564291773   -0.332263272868437                    0                    0                    0    -7.42572073931393
23 2    0.285675146069821    0.257568621170776    0.524342929694512   -0.831490692034534   -0.504034410173966    -4.32402223268725                    0                    0                    0      -7.344252317195
24 2    0.299636729232816    0.273334063027733    0.742585605859858    -1.31063704481599     -2.6111918775408     1.71994618809994                    0                    0                    0    -7.47313078309293
25 2    0.222427662501559    0.430603541553978   0.0399516798789818     0.77064139951658     2.79074642454516    -1.27943314792525                    0                    0                    0    -7.36882946267163
26 2    0.244460968234421    0.513664507506292    0.273753037611868    0.874583812607729     0.80564730634573   -0.970739471938151                    0                    0                    0    -7.37681174595419
27 2    0.192319491225476    0.496657375140217    0.450457975486074     6.01679084884175    -2.64101636475752    0.376634585382143                    0                    0                    0    -6.72942166784229
28 2    0.275077277695118    0.495788563237966    0.797953134571117    -3.43748071860014  -0.0376311139481211    -3.77908400084292                    0                    0                    0    -7.44276435250301
29 2    0.260809540264404    0.752793776519411  -0.0342399994723905    -1.78962426229381    -1.80366700250059     1.80594311404521                    0                    0                    0    -7.44056880262814
30 2    0.249569004251157    0.772003968887816    0.244747149108662    -2.56967745796364    -1.63264218816854    -1.51666615825224                    0                    0                    0    -7.59942138951087
31 2     0.25696668719479    0.734190534550635    0.527849892157178    -2.59967110892908     4.07480165110507   -0.928450507567171                    0                    0                    0    -7.70801680196231
32 2    0.201508107109817    0.703192236200493    0.731190671609852     2.09016452543969      1.7423783603946    0.856363749147168                    0                    0                    0    -7.16148566507832
33 2    0.506955628801961  0.00787196168221271   0.0145603366527212  -0.0284001917056623   -0.981312113514069   -0.478496694606953                    0                    0                    0    -7.78792523159981
34 2     0.45202048611111   -0.017122799376466    0.206882633917417     1.39844279458638     1.07382495673909     1.80547022033913                    0                    0                    0    -7.51884734306272
35 2    0.474819782729469  -0.0131707376705208     0.47007861187069   -0.757225107503994     2.02920073071202     2.37666375239081                    0                    0                    0    -7.58406072515437
36 2    0.553852710297292   0.0151209582660385    0.809849392631349     -1.8837482613196     4.69708776198312     -0.3479214635664                    0                    0                    0    -7.11641293685418
37 2    0.447912444310191    0.206588305978016  0.00478496014693519     1.88408284640171     2.93827221658172    -1.25938723251502                    0                    0                    0    -7.35093600473625
38 2    0.565944398669672    0.313677567169975    0.250881088880419    -5.29767602384746     -3.6469557416328     2.73985247126105                    0                    0                    0    -6.96506906566788
39 2    0.506973055033882    0.244066043523844    0.502853302549283    0.012968959074428    0.946696295322449   -0.744592784889824                    0                    0                    0    -7.81534442851683
40 2    0.549514525623749    0.239109451090599     0.74932434085963    -1.17989713890986   -0.755731748354657     -0.9779286044414                    0                    0                    0    -7.58210537108635
41 2    0.512893907390435    0.557329954476813 -0.00309291396564504     3.95116007560554    -12.7119426366428     1.86214488247385                    0                    0                    0    -5.53141040154093
42 2    0.572577858526415    0.520608133179849    0.228702248197123    -4.70901724008205     1.72824429112752   0.0315927849623621                    0                    0                    0    -7.27093257864827
43 2    0.487805408592862    0.476719034145162    0.459316183238684  -0.0645617676707166     1.59381951895059     1.38915630495404                    0                    0                    0    -7.71395503253774
44 2    0.461269151839929    0.488634686080786    0.696320407181702     1.58439957010717     2.47019018262362     2.88474482512357                    0                    0                    0    -7.54734708287134
45 2    0.488349343111508    0.698212684286773  -0.0153844411957493    -7.55535124609225     11.4977395112913    0.976348201607857                    0                    0                    0    -5.31398353887192
46 2    0.471115466675769    0.782087270613602    0.270035220714703     4.50123759711113   -0.867752315157164    -2.31780412552271                    0                    0                    0    -7.57416380962244
47 2    0.473778631136838    0.777203235678712    0.489093716923435     1.40355107953611    -2.73569076558957     1.51904480056109                    0                    0                    0    -7.71545018491414
48 2    0.462817525016703    0.788983709394074    0.742151381177337     1.70927053875405    -5.67247085011647    0.262232169304574                    0                    0                    0    -7.18742876184345
49 2    0.738106415354537  -0.0255331337098141   0.0272222735023888     1.15587703359552     4.28013941161106    -4.21371187565934                    0                    0                    0    -7.28542150924292
50 2    0.771400511468187   -0.026745782400269    0.229132882034833    -8.39852621912033    0.568092518010095     2.57201365404338                    0                    0                    0    -6.30597787941837
51 2    0.741282843760928  -0.0112247004677783    0.515599505048158    0.610198609359274    0.665728831499921    -1.49415382345303                    0                    0                    0    -7.63383523963842
52 2    0.738990968343387   -0.012598372496484    0.763728035813415    0.642847659682835    -1.84767473101283    -2.49311069784457                    0                    0                    0    -7.38954479481905
53 2    0.731250768912219    0.267625549144782   0.0611395670398451     3.57973062953302     1.94433744803639    -9.54652734415657                    0                    0                    0    -6.65166168478502
54 2    0.745097637635467    0.287725737257233    0.241686548913094      2.6782598622265    -7.71714333871652      8.4409185427528                    0                    0                    0    -6.02866983275524
55 2    0.753728932340437    0.305452222341046    0.508830485905605     1.87408394316905    -4.85857428242119    -1.63762217942623                    0                    0                    0    -7.11057574638332
56 2     0.82105016923299    0.310354718891745    0.782269366383161    -6.51875074158847    -2.51424232128134    -7.07662355662702                    0                    0                    0    -6.26251737985782
57 2    0.707057911307061    0.470342267971432  -0.0261095195216399    0.178050596659524     1.53563557346523     1.09984092274951                    0                    0                    0     -7.7218901874328
58 2    0.756900268259642    0.487596037191224    0.226666062864638   -0.867987236494124     4.71201605793903     1.36062317141004                    0                    0                    0    -6.77685102033114
59 2    0.771956057689408    0.507570366494974    0.528846882796984   0.0671319452518783     3.03034919923044    -2.03134761330626                    0                    0                    0    -7.44129450165691
60 2    0.814168440767048    0.609068900097895    0.781068220659904    0.628902277744046    -7.97107191464215    -2.15048720103712                    0                    0                    0     -4.6433909754169
61 2    0.699615416694883    0.738365196420887 -0.00604939569643648     5.31505082119276    0.853798598912326    -1.33401496070818                    0                    0                    0    -7.12915201456051
62 2    0.762818929671539    0.781266713658624    0.256768544335841     1.17550083941287    -3.60253262356906     2.21182366623861                    0                    0                    0    -7.57459623659393
63 2    0.725968049719768    0.740238081180451    0.510463642297509    0.333810748821133     3.50839822454575    -5.25376467274832                    0                    0                    0    -7.20911853123502
64 2    0.760711250233157    0.732793159485254    0.698744890851458    -4.61107770261853     2.66367402664332     2.57898297268243                    0                    0                    0    -6.39987012801389
