LAMMPS (29 Aug 2024 - Development - 5b9cae1)
OMP_NUM_THREADS environment is not set. Defaulting to 1 thread. (src/comm.cpp:98)
  using 1 OpenMP thread(s) per MPI task
units metal
dimension 3
boundary p p p
atom_style atomic

read_data lammps.data
Reading data file ...
  triclinic box = (0 0 0) to (9.9419716 9.3733807 8.1175858) with tilt (-3.3139905 -3.3139905 -4.6866904)
WARNING: Triclinic box skew is large. LAMMPS will run inefficiently. (src/domain.cpp:221)
  1 by 1 by 1 MPI processor grid
  reading atoms ...
  64 atoms
  read_data CPU = 0.003 seconds

pair_style grace
[GRACE] TF version: 2.16.2
[GRACE] Neighbour padding is ON, padding fraction: 0.01, max padding fraction before reduction: 0.2, max number of reduction(s): 10
pair_coeff * * /root/github_dev/test_workflow_nodes/2025_04_29_FeGB_Segregation_Workflows/final_model C Fe
[GRACE] Loading /root/github_dev/test_workflow_nodes/2025_04_29_FeGB_Segregation_Workflows/final_model
[GRACE] Model loaded
[GRACE] Mapping LAMMPS atom type #1(C) -> ACE species type #0
[GRACE] Mapping LAMMPS atom type #2(Fe) -> ACE species type #1

compute eng all pe/atom
dump 1 all custom 10 dump.out id type xsu ysu zsu fx fy fz vx vy vz c_eng
dump_modify 1 sort id format line "%d %d %20.15g %20.15g %20.15g %20.15g %20.15g %20.15g %20.15g %20.15g %20.15g %20.15g %20.15g %20.15g"

thermo_style custom step temp pe etotal pxx pxy pxz pyy pyz pzz vol
thermo_modify format float %20.15g
thermo 10

min_style cg
minimize 0 0 0 0

CITE-CITE-CITE-CITE-CITE-CITE-CITE-CITE-CITE-CITE-CITE-CITE-CITE

Your simulation uses code contributions which should be cited:

- Type Label Framework: https://doi.org/10.1021/acs.jpcb.3c08419

@Article{Gissinger24,
 author = {Jacob R. Gissinger, Ilia Nikiforov, Yaser Afshar, Brendon Waters, Moon-ki Choi, Daniel S. Karls, Alexander Stukowski, Wonpil Im, Hendrik Heinz, Axel Kohlmeyer, and Ellad B. Tadmor},
 title = {Type Label Framework for Bonded Force Fields in LAMMPS},
 journal = {J. Phys. Chem. B},
 year =    2024,
 volume =  128,
 number =  13,
 pages =   {3282–-3297}
}

CITE-CITE-CITE-CITE-CITE-CITE-CITE-CITE-CITE-CITE-CITE-CITE-CITE

Neighbor list info ...
  update: every = 1 steps, delay = 0 steps, check = yes
  max neighbors/atom: 2000, page size: 100000
  master list distance cutoff = 8
  ghost atom cutoff = 8
  binsize = 4, bins = 5 4 3
  1 neighbor lists, perpetual/occasional/extra = 1 0 0
  (1) pair grace, perpetual
      attributes: full, newton on
      pair build: full/bin/atomonly
      stencil: full/bin/3d
      bin: standard
Per MPI rank memory allocation (min/avg/max) = 4.389 | 4.389 | 4.389 Mbytes
   Step          Temp          PotEng         TotEng          Pxx            Pxy            Pxz            Pyy            Pyz            Pzz           Volume    
         0                     0    -454.367609882893    -454.367609882893     142767.137727781     -22899.176361745    -24207.3893120665     250337.095323183     6048.22676681128     233893.007757091           756.476896
Loop time of 5.371e-06 on 1 procs for 0 steps with 64 atoms

335.1% CPU use with 1 MPI tasks x 1 OpenMP threads

Minimization stats:
  Stopping criterion = max iterations
  Energy initial, next-to-last, final = 
     -454.367609882893                  0  -454.367609882893
  Force two-norm initial, final = 45.033039 45.033039
  Force max component initial, final = 12.711943 12.711943
  Final line search alpha, max atom move = 0 0
  Iterations, force evaluations = 0 0

MPI task timing breakdown:
Section |  min time  |  avg time  |  max time  |%varavg| %total
---------------------------------------------------------------
Pair    | 0          | 0          | 0          |   0.0 |  0.00
Neigh   | 0          | 0          | 0          |   0.0 |  0.00
Comm    | 0          | 0          | 0          |   0.0 |  0.00
Output  | 0          | 0          | 0          |   0.0 |  0.00
Modify  | 0          | 0          | 0          |   0.0 |  0.00
Other   |            | 5.371e-06  |            |       |100.00

Nlocal:             64 ave          64 max          64 min
Histogram: 1 0 0 0 0 0 0 0 0 0
Nghost:           1514 ave        1514 max        1514 min
Histogram: 1 0 0 0 0 0 0 0 0 0
Neighs:              0 ave           0 max           0 min
Histogram: 1 0 0 0 0 0 0 0 0 0
FullNghs:        11248 ave       11248 max       11248 min
Histogram: 1 0 0 0 0 0 0 0 0 0

Total # of neighbors = 11248
Ave neighs/atom = 175.75
Neighbor list builds = 0
Dangerous builds = 0
[GRACE:debug, proc #0]: Data preparation timer: 261 mcs, graph execution time: 4.23408e+06 mcs, data preparation time fraction: 0.01 %
Total wall time: 0:00:05
